#(C) 2016 by FIZ Karlsruhe - Leibniz Institute for Information Infrastructure.  All rights reserved.
data_190689-ICSD
_database_code_ICSD 190689
_audit_creation_date 2018-09-05
_chemical_name_systematic 'Ytterbium titanium oxide (2.046/1.954/7)'
_chemical_formula_structural 'Yb2 ((Ti1.954 Yb0.046) O7)'
_chemical_formula_sum 'Ba Co Na2 O8 P2'
_chemical_name_structure_type Pyrochlore-NaCa(Nb2O6)F
_exptl_crystal_density_diffrn 432.21
_cell_measurement_temperature 15.
_publ_section_title

;
Lightly stuffed pyrochlore structure of single-crystalline Yb2 Ti2 O7 grown by
the optical floating zone technique
;
loop_
_citation_id
_citation_journal_full
_citation_year
_citation_journal_volume
_citation_page_first
_citation_page_last
_citation_journal_id_ASTM
primary 'Physical Review, Serie 3. B - Condensed Matter (18,1978-)' 2012 86
174424-1 174424-11 PRBMDO
loop_
_publ_author_name
'Ross, K.A.'
'Proffen, Th.'
'Dabkowska, H.A.'
'Quillian, J.A.'
'Yaraskavitch, L.R.'
'Kycia, J.B.'
'Gaulin, B.D.'
_cell_length_a 5.4159(1)
_cell_length_b 5.4159(1)
_cell_length_c 17.5629(3)
_cell_angle_alpha 90.
_cell_angle_beta 90.
_cell_angle_gamma 120.
_cell_volume 446.14
_cell_formula_units_Z 3
_symmetry_space_group_name_H-M 'R -3 m'
_symmetry_Int_Tables_number 166
_refine_ls_R_factor_all 0.0272
loop_
_symmetry_equiv_pos_site_id
_symmetry_equiv_pos_as_xyz
1 'x, y, z'
2 'x-y, -y, -z+1'
3 '-x+1, -y, -z+1'
4 'x+y+1, y, z'
loop_
_atom_type_symbol
_atom_type_oxidation_number
Yb3+ 3
Ba2+ 2
K1+ 1
O2- -2
B3+ 3
loop_
_atom_site_label
_atom_site_type_symbol
_atom_site_fract_x
_atom_site_fract_y
_atom_site_fract_z
_atom_site_occupancy
_atom_site_B_iso_or_equiv
Yb1    Yb3+      0.0000000000       0.0000000000       0.0000000000 0
Yb2    Yb3+      0.6666666667       0.3333333333       0.3333333333 0
Yb3    Yb3+      0.3333333333       0.6666666667       0.6666666667 0
Ba1    Ba2+      0.0000000000       0.0000000000       0.2137200000 0
Ba2    Ba2+      0.0000000000       0.0000000000       0.7862800000 0
Ba3    Ba2+      0.6666666667       0.3333333333       0.5470533333 0
Ba4    Ba2+      0.6666666667       0.3333333333       0.1196133333 0
Ba5    Ba2+      0.3333333333       0.6666666667       0.8803866667 0
Ba6    Ba2+      0.3333333333       0.6666666667       0.4529466667 0
O7     O2-       0.4807600000       0.5192400000       0.2555800000 0
O8     O2-       0.4807600000       0.9615200000       0.2555800000 0
O9     O2-       0.0384800000       0.5192400000       0.2555800000 0
O10    O2-       0.5192400000       0.4807600000       0.7444200000 0
O11    O2-       0.9615200000       0.4807600000       0.7444200000 0
O12    O2-       0.5192400000       0.0384800000       0.7444200000 0
O13    O2-       0.1474266667       0.8525733333       0.5889133333 0
O14    O2-       0.1474266667       0.2948533333       0.5889133333 0
O15    O2-       0.7051466667       0.8525733333       0.5889133333 0
O16    O2-       0.1859066667       0.8140933333       0.0777533333 0
O17    O2-       0.6281866667       0.8140933333       0.0777533333 0
O18    O2-       0.1859066667       0.3718133333       0.0777533333 0
O19    O2-       0.8140933333       0.1859066667       0.9222466667 0
O20    O2-       0.8140933333       0.6281866667       0.9222466667 0
O21    O2-       0.3718133333       0.1859066667       0.9222466667 0
O22    O2-       0.8525733333       0.1474266667       0.4110866667 0
O23    O2-       0.2948533333       0.1474266667       0.4110866667 0
O24    O2-       0.8525733333       0.7051466667       0.4110866667 0
B1     B3+       0.0000000000       0.0000000000       0.4099000000 0
B2     B3+       0.0000000000       0.0000000000       0.5901000000 0
B3     B3+       0.6666666667       0.3333333333       0.7432333333 0
B4     B3+       0.6666666667       0.3333333333       0.9234333333 0
B5     B3+       0.3333333333       0.6666666667       0.0765666667 0
B6     B3+       0.3333333333       0.6666666667       0.2567666667 0
loop_
_atom_site_aniso_label
_atom_site_aniso_type_symbol
_atom_site_aniso_U_11
_atom_site_aniso_U_22
_atom_site_aniso_U_33
_atom_site_aniso_U_12
_atom_site_aniso_U_13
_atom_site_aniso_U_23

