#(C) 2016 by FIZ Karlsruhe - Leibniz Institute for Information Infrastructure.  All rights reserved.
data_190689-ICSD
_database_code_ICSD 190689
_audit_creation_date 2018-09-05
_chemical_name_systematic 'Ytterbium titanium oxide (2.046/1.954/7)'
_chemical_formula_structural 'Yb2 ((Ti1.954 Yb0.046) O7)'
_chemical_formula_sum 'Ba Co Na2 O8 P2'
_chemical_name_structure_type Pyrochlore-NaCa(Nb2O6)F
_exptl_crystal_density_diffrn 432.21
_cell_measurement_temperature 15.
_publ_section_title

;
Lightly stuffed pyrochlore structure of single-crystalline Yb2 Ti2 O7 grown by
the optical floating zone technique
;
loop_
_citation_id
_citation_journal_full
_citation_year
_citation_journal_volume
_citation_page_first
_citation_page_last
_citation_journal_id_ASTM
primary 'Physical Review, Serie 3. B - Condensed Matter (18,1978-)' 2012 86
174424-1 174424-11 PRBMDO
loop_
_publ_author_name
'Ross, K.A.'
'Proffen, Th.'
'Dabkowska, H.A.'
'Quillian, J.A.'
'Yaraskavitch, L.R.'
'Kycia, J.B.'
'Gaulin, B.D.'
_cell_length_a 5.4159(1)
_cell_length_b 5.4159(1)
_cell_length_c 17.5629(3)
_cell_angle_alpha 90.
_cell_angle_beta 90.
_cell_angle_gamma 120.
_cell_volume 446.14
_cell_formula_units_Z 1
_symmetry_space_group_name_H-M 'R -3 m'
_symmetry_Int_Tables_number 166
_refine_ls_R_factor_all 0.0272
loop_
_symmetry_equiv_pos_site_id
_symmetry_equiv_pos_as_xyz
1 'x, y, z'
2 'x-y, -y, -z+1'
3 '-x+1, -y, -z+1'
4 'x+y+1, y, z'
loop_
_atom_type_symbol
_atom_type_oxidation_number
Yb3+ 3
Ba2+ 2
O2- -2
B3+ 3
loop_
_atom_site_label
_atom_site_type_symbol
_atom_site_fract_x
_atom_site_fract_y
_atom_site_fract_z
_atom_site_occupancy
_atom_site_B_iso_or_equiv
Yb1   Yb3+   -0.000000000  -0.000000000   0.000000000 0
Yb2   Yb3+    0.666666667   0.333333333   0.332226831 0
Yb3   Yb3+    0.333333333   0.666666667   0.667773169 0
Ba1   Ba2+   -0.000000000  -0.000000000   0.216920403 0
Ba2   Ba2+    0.000000000   0.000000000   0.783079597 0
Ba3   Ba2+    0.666666667   0.333333333   0.548734024 0
Ba4   Ba2+    0.666666667   0.333333333   0.119439582 0
Ba5   Ba2+    0.333333333   0.666666667   0.880560418 0
Ba6   Ba2+    0.333333333   0.666666667   0.451265976 0
O1    O2-     0.482845493   0.517154507   0.244602236 0
O2    O2-     0.482845493   0.965690986   0.244602236 0
O3    O2-     0.034309014   0.517154507   0.244602236 0
O4    O2-     0.517154507   0.482845493   0.755397764 0
O5    O2-     0.965690986   0.482845493   0.755397764 0
O6    O2-     0.517154507   0.034309014   0.755397764 0
O7    O2-     0.146109216   0.853890784   0.582009724 0
O8    O2-     0.146109216   0.292218432   0.582009724 0
O9    O2-     0.707781568   0.853890784   0.582009724 0
O10   O2-     0.186844515   0.813155485   0.084707520 0
O11   O2-     0.626310970   0.813155485   0.084707520 0
O12   O2-     0.186844515   0.373689030   0.084707520 0
O13   O2-     0.813155485   0.186844515   0.915292480 0
O14   O2-     0.813155485   0.626310970   0.915292480 0
O15   O2-     0.373689030   0.186844515   0.915292480 0
O16   O2-     0.853890784   0.146109216   0.417990276 0
O17   O2-     0.292218432   0.146109216   0.417990276 0
O18   O2-     0.853890784   0.707781568   0.417990276 0
B1    B3+    -0.000000000  -0.000000000   0.418684361 0
B2    B3+    -0.000000000  -0.000000000   0.581315639 0
B3    B3+     0.666666667   0.333333333   0.741170743 0
B4    B3+     0.666666667   0.333333333   0.914532091 0
B5    B3+     0.333333333   0.666666667   0.085467909 0
B6    B3+     0.333333333   0.666666667   0.258829257 0
loop_
_atom_site_aniso_label
_atom_site_aniso_type_symbol
_atom_site_aniso_U_11
_atom_site_aniso_U_22
_atom_site_aniso_U_33
_atom_site_aniso_U_12
_atom_site_aniso_U_13
_atom_site_aniso_U_23

