#(C) 2016 by FIZ Karlsruhe - Leibniz Institute for Information Infrastructure.  All rights reserved.
data_190689-ICSD
_database_code_ICSD 190689
_audit_creation_date 2018-09-05
_chemical_name_systematic 'Ytterbium titanium oxide (2.046/1.954/7)'
_chemical_formula_structural 'Yb2 ((Ti1.954 Yb0.046) O7)'
_chemical_formula_sum 'Ba Co Na2 O8 P2'
_chemical_name_structure_type Pyrochlore-NaCa(Nb2O6)F
_exptl_crystal_density_diffrn 432.21
_cell_measurement_temperature 15.
_publ_section_title

;
Lightly stuffed pyrochlore structure of single-crystalline Yb2 Ti2 O7 grown by
the optical floating zone technique
;
loop_
_citation_id
_citation_journal_full
_citation_year
_citation_journal_volume
_citation_page_first
_citation_page_last
_citation_journal_id_ASTM
primary 'Physical Review, Serie 3. B - Condensed Matter (18,1978-)' 2012 86
174424-1 174424-11 PRBMDO
loop_
_publ_author_name
'Ross, K.A.'
'Proffen, Th.'
'Dabkowska, H.A.'
'Quillian, J.A.'
'Yaraskavitch, L.R.'
'Kycia, J.B.'
'Gaulin, B.D.'
_cell_length_a 5.31850(10)
_cell_length_b 5.31850(10)
_cell_length_c 7.00810(10)
_cell_angle_alpha 90.
_cell_angle_beta 90.
_cell_angle_gamma 120.
_cell_volume 171.676(5)
_cell_formula_units_Z 1
_symmetry_space_group_name_H-M 'P -3 m 1'
_symmetry_Int_Tables_number 164
_refine_ls_R_factor_all 0.0272
loop_
_symmetry_equiv_pos_site_id
_symmetry_equiv_pos_as_xyz
1 'x, y, z'
2 '-y, x-y, z'
3 '-x+y, -x, z'
4 'x-y, -y, -z'
5 '-x, -x+y, -z'
6 'y, x, -z'
7 '-x, -y, -z'
8 'y, -x+y, -z'
9 'x-y, x, -z'
10 '-x+y, y, z'
11 'x, x-y, z'
12 '-y, -x, z'
loop_
_atom_type_symbol
_atom_type_oxidation_number
Ba2+ 2
Co2+ 2
Na1+ 1
O2- -2
P5- 5
loop_
_atom_site_label
_atom_site_type_symbol
_atom_site_symmetry_multiplicity
_atom_site_Wyckoff_symbol
_atom_site_fract_x
_atom_site_fract_y
_atom_site_fract_z
_atom_site_B_iso_or_equiv
_atom_site_occupancy
_atom_site_attached_hydrogens
Ba1 Ba2+ 12 d 0.0000 0.0000 0.0000 0.01031 1 0
Co1 Co2+ 12 d 0.0000 0.0000 0.5000 0.0069 1 0
P1 P5- 6 d 0.3333 0.6667 0.2420 0.0064 1 0
Na1 Na1+ 6 d 0.3333 0.6667 0.6794 0.0162 1 0
O2 O2- 6 d 0.3333 0.6667 0.0250 0.0128 1 0
O1 O2- 2 d 0.1793 0.8207 0.3188 0.0417 1 0
loop_
_atom_site_aniso_label
_atom_site_aniso_type_symbol
_atom_site_aniso_U_11
_atom_site_aniso_U_22
_atom_site_aniso_U_33
_atom_site_aniso_U_23
_atom_site_aniso_U_13
_atom_site_aniso_U_12
Ba1 Ba2+ 0.0124(2) 0.0124(2) 0.0060(3) 0.000 0.000 0.00622(11)
Co1 Co2+ 0.0072(4) 0.0072(4) 0.0062(6) 0.000 0.000 0.0036(2)
P1 P5- 0.0069(5) 0.0069(5) 0.0054(8) 0.000 0.000 0.0034(3)
Na1 Na1+ 0.0148(11) 0.0148(11) 0.0190(18) 0.000 0.000 0.0074(6)
O2 O2- 0.0168(19) 0.0168(19) 0.005(2) 0.000 0.000 0.0084(9)
O1 O2- 0.079(3) 0.079(3) 0.0149(16) -0.0019(8) 0.0019(8) 0.075(3)
