#(C) 2016 by FIZ Karlsruhe - Leibniz Institute for Information Infrastructure.  All rights reserved.
data_190689-ICSD
_database_code_ICSD 190689
_audit_creation_date 2014-08-01
_chemical_name_systematic 'Ytterbium titanium oxide (2.046/1.954/7)'
_chemical_formula_structural 'Yb2 ((Ti1.954 Yb0.046) O7)'
_chemical_formula_sum 'O7 Ti1.954 Yb2.046'
_chemical_name_structure_type Pyrochlore-NaCa(Nb2O6)F
_exptl_crystal_density_diffrn 7.41
_cell_measurement_temperature 15.
_publ_section_title

;
Lightly stuffed pyrochlore structure of single-crystalline Yb2 Ti2 O7 grown by
the optical floating zone technique
;
loop_
_citation_id
_citation_journal_full
_citation_year
_citation_journal_volume
_citation_page_first
_citation_page_last
_citation_journal_id_ASTM
primary 'Physical Review, Serie 3. B - Condensed Matter (18,1978-)' 2012 86
174424-1 174424-11 PRBMDO
loop_
_publ_author_name
'Ross, K.A.'
'Proffen, Th.'
'Dabkowska, H.A.'
'Quillian, J.A.'
'Yaraskavitch, L.R.'
'Kycia, J.B.'
'Gaulin, B.D.'
_cell_length_a 9.8109(7)
_cell_length_b 9.8109(7)
_cell_length_c 14.8403(13)
_cell_angle_alpha 90.
_cell_angle_beta 90.
_cell_angle_gamma 120.
_cell_volume 11237.060601
_cell_formula_units_Z 1
_symmetry_space_group_name_H-M 'P -3'
_symmetry_Int_Tables_number 147
_refine_ls_R_factor_all 0.0457
loop_
_symmetry_equiv_pos_site_id
_symmetry_equiv_pos_as_xyz
1 'x, y, z'
2 '-x, -y, -z'
3 '-y, x-y, z'
4 'y, -x+y, -z'
5 '-x+y, -x, z'
6 'x-y, x, -z'
loop_
_atom_type_symbol
_atom_type_oxidation_number
Pb2+ 2
CU2+ 2
P5+ 5
O2- -2
loop_
_atom_site_label
_atom_site_type_symbol
_atom_site_fract_x
_atom_site_fract_y
_atom_site_fract_z
_atom_site_occupancy
_atom_site_B_iso_or_equiv
Pb1 Pb2+ 0.9986807449642078  0.7699202447216552  0.2474756380877509 0
Pb2 Pb2+ 0.9977014382162520  0.2577003216124319  0.7545056960306785 0
Pb3 Pb2+ 0.2300797552783452  0.2287605002425670  0.2474756380877509 0
Pb4 Pb2+ 0.7422996783875685  0.7400011176038168  0.7545056960306785 0
Pb5 Pb2+ 0.7712395147574378  0.0013192690357936  0.2474756380877509 0
Pb6 Pb2+ 0.2599988973961879  0.0022985757837491  0.7545056960306785 0
Pb7 Pb2+ 0.3333333129999971  0.6666666269999979  0.0102252768912011 0
Pb8 Pb2+ 0.3333333129999971  0.6666666269999979  0.4962563424132084 0
Pb9 Pb2+ 0.6666666870000029  0.3333333429999996  0.5217140548665616 0
Cu1 Cu2+ 0.6666666870000029  0.3333333429999996  0.0634955699714910 0
P1 P5+ 0.6238378061607577  0.5940989414527301  0.2330614375419467 0
P2 P5+ 0.3715115645822017  0.3913852574380640  0.7499251076346213 0
P3 P5+ 0.4059010585472700  0.0297388347080183  0.2330614375419467 0
P4 P5+ 0.6086147425619355  0.9801263371441329  0.7499251076346213 0
P5 P5+ 0.9702611952919840  0.3761622238392447  0.2330614375419467 0
P6 P5+ 0.0198736928558696  0.6284884654178010  0.7499251076346213 0
O1 O2- 0.4970341950086190  0.6419127807282180  0.2504819573050943 0
O2 O2- 0.4722574174374839  0.3124116086150668  0.7489819492636393 0
O3 O2- 0.3580872192717823  0.8551214142804011  0.2504819573050943 0
O4 O2- 0.6875883913849331  0.1598458078224275  0.7489819492636393 0
O5 O2- 0.1448785557195963  0.5029657759913753  0.2504819573050943 0
O6 O2- 0.8401541621775773  0.5277425535625101  0.7489819492636393 0
O7 O2- 0.7465890784344098  0.6974373665162791  0.0877326196589775 0
O8 O2- 0.2518710331486960  0.3302579489920529  0.9082269759127742 0
O9 O2- 0.3025626334837207  0.0491516819181211  0.0877326196589775 0
O10 O2- 0.6697420510079468  0.9216131131566275  0.9082269759127742 0
O11 O2- 0.9508483470818850  0.2534109515655927  0.0877326196589775 0
O12 O2- 0.0783869158433784  0.7481289968513065  0.9082269759127742 0
O13 O2- 0.2751067320564097  0.3631086026138700  0.5737407252403873 0
O14 O2- 0.7132743878686607  0.6201447197159712  0.4140528338576862 0
O15 O2- 0.6368913973861298  0.9119981584425314  0.5737407252403873 0
O16 O2- 0.3798552802840290  0.0931296381526946  0.4140528338576862 0
O17 O2- 0.0880018705574747  0.7248932979435926  0.5737407252403873 0
O18 O2- 0.9068703908473114  0.2867256421313418  0.4140528338576862 0
O19 O2- 0.5441603686812513  0.4191736441937305  0.1764358135764958 0
O20 O2- 0.4780900223868556  0.5733419996779769  0.7722935441387523 0
O21 O2- 0.5808263258062671  0.1249867244875282  0.1764358135764958 0
O22 O2- 0.4266579703220141  0.9047479627088743  0.7722935441387523 0
O23 O2- 0.8750132455124694  0.4558396313187486  0.1764358135764958 0
O24 O2- 0.0952520072911234  0.5219099776131445  0.7722935441387523 0
O25 O2- -0.0000000000000000  0.0000000000000000  0.2917658511111268 0

loop_
_atom_site_aniso_label
_atom_site_aniso_type_symbol
_atom_site_aniso_U_11
_atom_site_aniso_U_22
_atom_site_aniso_U_33
_atom_site_aniso_U_12
_atom_site_aniso_U_13
_atom_site_aniso_U_23

