####################################################################### 
# 
# This file contains crystal structure data downloaded from the 
# Cambridge Structural Database (CSD) hosted by the Cambridge 
# Crystallographic Data Centre (CCDC).
# 
# Full information about CCDC data access policies and citation 
# guidelines are available at http://www.ccdc.cam.ac.uk/access/V1 
# 
# Audit and citation data items may have been added by the CCDC. 
# Please retain this information to preserve the provenance of 
# this file and to allow appropriate attribution of the data. 
# 
#######################################################################

data_mo_ruidan_bcpo_n1_0m
_audit_block_doi                 10.25505/fiz.icsd.cc20nq6m
_database_code_depnum_ccdc_archive 'CCDC 1866950'
loop_
_citation_id
_citation_doi
_citation_year
1 10.1073/pnas.1906483116 2019
loop_
_audit_author_name
_audit_author_address
'Shu Guo'
;Princeton University
China
;
_audit_update_record             
;
2018-09-10 deposited with the CCDC.	2023-09-23 downloaded from the CCDC.
;
_audit_creation_date             2018-09-05
_audit_creation_method           
;
Olex2 1.2
(compiled 2018.05.29 svn.r3508 for OlexSys, GUI svn.r5506)
;
_chemical_name_common            ?
_chemical_name_systematic        
;
 ? 
;
_chemical_formula_moiety         '2(Ba0.5 Co0.5 Na1 O4 P1)'
_chemical_formula_sum            'Ba Co Na2 O8 P2'
_chemical_formula_weight         432.21
_chemical_melting_point          ?
loop_
_atom_type_symbol
_atom_type_description
_atom_type_scat_dispersion_real
_atom_type_scat_dispersion_imag
_atom_type_scat_source
Ba Ba -0.3244 2.2819 'International Tables Vol C Tables 4.2.6.8 and 6.1.1.4'
Co Co 0.3494 0.9721 'International Tables Vol C Tables 4.2.6.8 and 6.1.1.4'
Na Na 0.0362 0.0249 'International Tables Vol C Tables 4.2.6.8 and 6.1.1.4'
O O 0.0106 0.0060 'International Tables Vol C Tables 4.2.6.8 and 6.1.1.4'
P P 0.1023 0.0942 'International Tables Vol C Tables 4.2.6.8 and 6.1.1.4'

_space_group_crystal_system      trigonal
_space_group_IT_number           164
_space_group_name_H-M_alt        'P -3 m 1'
_space_group_name_Hall           '-P 3 2"'
loop_
_space_group_symop_id
_space_group_symop_operation_xyz
1 'x, y, z'
2 '-y, x-y, z'
3 '-x+y, -x, z'
4 'x-y, -y, -z'
5 '-x, -x+y, -z'
6 'y, x, -z'
7 '-x, -y, -z'
8 'y, -x+y, -z'
9 'x-y, x, -z'
10 '-x+y, y, z'
11 'x, x-y, z'
12 '-y, -x, z'

_cell_length_a                   5.31850(10)
_cell_length_b                   5.31850(10)
_cell_length_c                   7.00810(10)
_cell_angle_alpha                90.00
_cell_angle_beta                 90.00
_cell_angle_gamma                120.00
_cell_volume                     171.676(5)
_cell_formula_units_Z            0.99996
_cell_measurement_reflns_used    2955
_cell_measurement_temperature    298(2)
_cell_measurement_theta_max      36.31
_cell_measurement_theta_min      2.91
_exptl_absorpt_coefficient_mu    8.721
_exptl_absorpt_correction_T_max  0.7471
_exptl_absorpt_correction_T_min  0.6590
_exptl_absorpt_correction_type   multi-scan
_exptl_absorpt_process_details   
;
SADABS-2014/5 (Bruker,2014/5) was used for absorption correction.
wR2(int) was 0.0393 before and 0.0086 after correction.
The Ratio of minimum to maximum transmission is 0.8821.
The \l/2 correction factor is 0.00150.
;
_exptl_crystal_colour            violet
_exptl_crystal_colour_primary    violet
_exptl_crystal_density_diffrn    4.180
_exptl_crystal_density_meas      ?
_exptl_crystal_density_method    'not measured'
_exptl_crystal_description       plate
_exptl_crystal_F_000             199
_exptl_crystal_size_max          0.065
_exptl_crystal_size_mid          0.065
_exptl_crystal_size_min          0.04
_exptl_special_details           
;
 ? 
;
_diffrn_reflns_av_R_equivalents  0.0516
_diffrn_reflns_av_unetI/netI     0.0147
_diffrn_reflns_limit_h_max       7
_diffrn_reflns_limit_h_min       -8
_diffrn_reflns_limit_k_max       8
_diffrn_reflns_limit_k_min       -8
_diffrn_reflns_limit_l_max       10
_diffrn_reflns_limit_l_min       -10
_diffrn_reflns_number            3265
_diffrn_reflns_theta_full        33.14
_diffrn_reflns_theta_max         33.14
_diffrn_reflns_theta_min         2.91
_diffrn_ambient_temperature      298(2)
_diffrn_detector_area_resol_mean ?
_diffrn_measured_fraction_theta_full 0.993
_diffrn_measured_fraction_theta_max 0.993
_diffrn_measurement_device_type  'Bruker APEX-II CCD'
_diffrn_measurement_method       '\f and \w scans'
_diffrn_radiation_monochromator  graphite
_diffrn_radiation_type           MoK\a
_diffrn_radiation_wavelength     0.71073
_diffrn_source                   'fine-focus sealed tube'
_diffrn_standards_decay_%        ?
_diffrn_standards_interval_count ?
_diffrn_standards_interval_time  ?
_diffrn_standards_number         0
_reflns_number_gt                273
_reflns_number_total             283
_reflns_threshold_expression     >2sigma(I)
_computing_cell_refinement       ?
_computing_data_collection       ?
_computing_data_reduction        ?
_computing_molecular_graphics    'Olex2 (Dolomanov et al., 2009)'
_computing_publication_material  'Olex2 (Dolomanov et al., 2009)'
_computing_structure_refinement  'XL (Sheldrick, 2008)'
_computing_structure_solution    'XS (Sheldrick, 2008)'
_refine_diff_density_max         2.164
_refine_diff_density_min         -1.535
_refine_diff_density_rms         0.243
_refine_ls_extinction_coef       ?
_refine_ls_extinction_method     none
_refine_ls_goodness_of_fit_ref   1.197
_refine_ls_hydrogen_treatment    undef
_refine_ls_matrix_type           full
_refine_ls_number_parameters     20
_refine_ls_number_reflns         283
_refine_ls_number_restraints     6
_refine_ls_R_factor_all          0.0272
_refine_ls_R_factor_gt           0.0260
_refine_ls_restrained_S_all      1.379
_refine_ls_shift/su_max          0.000
_refine_ls_shift/su_mean         0.000
_refine_ls_structure_factor_coef Fsqd
_refine_ls_weighting_details     
'calc w=1/[\s^2^(Fo^2^)+(0.0000P)^2^+1.7652P] where P=(Fo^2^+2Fc^2^)/3'
_refine_ls_weighting_scheme      calc
_refine_ls_wR_factor_gt          0.0574
_refine_ls_wR_factor_ref         0.0580
_refine_special_details          
;
 Refinement of F^2^ against ALL reflections.  The weighted R-factor wR and 
 goodness of fit S are based on F^2^, conventional R-factors R are based 
 on F, with F set to zero for negative F^2^. The threshold expression of 
 F^2^ > 2sigma(F^2^) is used only for calculating R-factors(gt) etc. and is 
 not relevant to the choice of reflections for refinement.  R-factors based 
 on F^2^ are statistically about twice as large as those based on F, and R- 
 factors based on ALL data will be even larger. 
;
_olex2_refinement_description    
;
1. Uiso/Uaniso restraints and constraints
Uanis(O1) \\sim Ueq: with sigma of 0.008 and sigma for terminal atoms of 0.016
;
_atom_sites_solution_hydrogens   constr
_atom_sites_solution_primary     direct
_atom_sites_solution_secondary   difmap
loop_
_atom_site_label
_atom_site_type_symbol
_atom_site_fract_x
_atom_site_fract_y
_atom_site_fract_z
_atom_site_U_iso_or_equiv
_atom_site_adp_type
_atom_site_occupancy
_atom_site_calc_flag
_atom_site_disorder_assembly
_atom_site_disorder_group
_atom_site_site_symmetry_order
_atom_site_refinement_flags_posn
_atom_site_refinement_flags_adp
_atom_site_refinement_flags_occupancy
Ba1 Ba 0.0000 0.0000 0.0000 0.01031(18) Uani 1 d . . 12 S T P
Co1 Co 0.0000 0.0000 0.5000 0.0069(3) Uani 1 d . . 12 S T P
P1 P 0.3333 0.6667 0.2420(3) 0.0064(4) Uani 1 d . . 6 S T P
Na1 Na 0.3333 0.6667 0.6794(6) 0.0162(8) Uani 1 d . . 6 S T P
O2 O 0.3333 0.6667 0.0250(8) 0.0128(12) Uani 1 d . . 6 S T P
O1 O 0.1793(5) 0.8207(5) 0.3188(6) 0.0417(14) Uani 1 d . . 2 S TU P

loop_
_atom_site_aniso_label
_atom_site_aniso_U_11
_atom_site_aniso_U_22
_atom_site_aniso_U_33
_atom_site_aniso_U_23
_atom_site_aniso_U_13
_atom_site_aniso_U_12
Ba1 0.0124(2) 0.0124(2) 0.0060(3) 0.000 0.000 0.00622(11)
Co1 0.0072(4) 0.0072(4) 0.0062(6) 0.000 0.000 0.0036(2)
P1 0.0069(5) 0.0069(5) 0.0054(8) 0.000 0.000 0.0034(3)
Na1 0.0148(11) 0.0148(11) 0.0190(18) 0.000 0.000 0.0074(6)
O2 0.0168(19) 0.0168(19) 0.005(2) 0.000 0.000 0.0084(9)
O1 0.079(3) 0.079(3) 0.0149(16) -0.0019(8) 0.0019(8) 0.075(3)

_geom_special_details            
;
 All esds (except the esd in the dihedral angle between two l.s. planes) 
 are estimated using the full covariance matrix.  The cell esds are taken 
 into account individually in the estimation of esds in distances, angles 
 and torsion angles; correlations between esds in cell parameters are only 
 used when they are defined by crystal symmetry.  An approximate (isotropic) 
 treatment of cell esds is used for estimating esds involving l.s. planes. 
;
loop_
_geom_bond_atom_site_label_1
_geom_bond_atom_site_label_2
_geom_bond_distance
_geom_bond_site_symmetry_2
_geom_bond_publ_flag
Ba1 O2 3.0756(3) 7_565 ?
Ba1 O2 3.0756(3) 1_445 ?
Ba1 O2 3.0756(3) 7 ?
Ba1 O2 3.0756(3) 1_545 ?
Ba1 O2 3.0756(3) . ?
Ba1 O2 3.0756(3) 7_665 ?
Ba1 O1 2.779(4) 8_445 ?
Ba1 O1 2.779(4) 3_455 ?
Ba1 O1 2.779(4) 7_565 ?
Ba1 O1 2.779(4) 2_665 ?
Ba1 O1 2.779(4) 1_545 ?
Ba1 O1 2.779(4) 9_655 ?
Co1 Na1 3.3182(17) 7_556 ?
Co1 Na1 3.3182(17) 7_566 ?
Co1 Na1 3.3182(17) . ?
Co1 Na1 3.3182(17) 1_545 ?
Co1 Na1 3.3182(17) 7_666 ?
Co1 Na1 3.3182(17) 1_445 ?
Co1 O1 2.083(4) 8_446 ?
Co1 O1 2.083(4) 9_656 ?
Co1 O1 2.083(4) 7_566 ?
Co1 O1 2.083(4) 3_455 ?
Co1 O1 2.083(4) 1_545 ?
Co1 O1 2.083(4) 2_665 ?
P1 Ba1 3.5080(9) 1_565 ?
P1 Ba1 3.5080(9) 1_665 ?
P1 Na1 3.065(5) . ?
P1 Na1 3.1195(9) 7_666 ?
P1 Na1 3.1195(9) 7_566 ?
P1 Na1 3.1195(9) 7_676 ?
P1 O2 1.521(6) . ?
P1 O1 1.517(5) . ?
P1 O1 1.517(5) 2_665 ?
P1 O1 1.517(5) 3_565 ?
Na1 P1 3.1195(9) 7_676 ?
Na1 O2 2.422(7) 1_556 ?
Na1 O1 2.6618(2) 8_556 ?
Na1 O1 2.6618(2) 8_456 ?
Na1 O1 2.6618(2) 9_656 ?
Na1 O1 2.898(5) 3_565 ?
Na1 O1 2.898(5) . ?
Na1 O1 2.6618(2) 7_676 ?
Na1 O1 2.6618(2) 9_666 ?
Na1 O1 2.6618(2) 7_566 ?
Na1 O1 2.898(5) 2_665 ?
O2 Ba1 3.0756(3) 1_665 ?
O2 Ba1 3.0756(3) 1_565 ?
O2 Na1 2.422(7) 1_554 ?
O1 Ba1 2.779(4) 1_565 ?
O1 Co1 2.083(4) 1_565 ?
O1 Na1 2.6618(2) 7_566 ?
O1 Na1 2.6618(2) 7_676 ?

loop_
_geom_angle_atom_site_label_1
_geom_angle_atom_site_label_2
_geom_angle_atom_site_label_3
_geom_angle
_geom_angle_site_symmetry_1
_geom_angle_site_symmetry_3
_geom_angle_publ_flag
O2 Ba1 O2 180.0 7_565 1_545 ?
O2 Ba1 O2 119.68(2) 1_545 1_445 ?
O2 Ba1 O2 60.32(2) 1_545 7_665 ?
O2 Ba1 O2 60.32(2) 7_565 . ?
O2 Ba1 O2 60.32(2) 7 1_445 ?
O2 Ba1 O2 119.68(2) 1_545 . ?
O2 Ba1 O2 60.32(2) 7_565 1_445 ?
O2 Ba1 O2 119.68(2) 7 7_665 ?
O2 Ba1 O2 119.68(2) . 1_445 ?
O2 Ba1 O2 119.68(2) 7_565 7 ?
O2 Ba1 O2 119.68(2) 7_565 7_665 ?
O2 Ba1 O2 60.32(2) 1_545 7 ?
O2 Ba1 O2 60.32(2) . 7_665 ?
O2 Ba1 O2 180.0 . 7 ?
O2 Ba1 O2 180.0 1_445 7_665 ?
O1 Ba1 O2 104.53(10) 1_545 . ?
O1 Ba1 O2 129.75(14) 8_445 . ?
O1 Ba1 O2 75.47(10) 9_655 1_545 ?
O1 Ba1 O2 75.47(10) 7_565 . ?
O1 Ba1 O2 50.25(14) 3_455 1_445 ?
O1 Ba1 O2 75.47(10) 9_655 . ?
O1 Ba1 O2 50.25(14) 9_655 7_665 ?
O1 Ba1 O2 104.53(10) 3_455 . ?
O1 Ba1 O2 75.47(10) 7_565 1_445 ?
O1 Ba1 O2 75.47(10) 2_665 7_565 ?
O1 Ba1 O2 50.25(14) 1_545 1_545 ?
O1 Ba1 O2 129.75(14) 1_545 7_565 ?
O1 Ba1 O2 75.47(10) 2_665 7_665 ?
O1 Ba1 O2 50.25(14) 8_445 7 ?
O1 Ba1 O2 104.53(10) 3_455 1_545 ?
O1 Ba1 O2 129.75(14) 2_665 7 ?
O1 Ba1 O2 104.53(10) 1_545 1_445 ?
O1 Ba1 O2 75.47(10) 1_545 7 ?
O1 Ba1 O2 129.75(14) 9_655 1_445 ?
O1 Ba1 O2 50.25(14) 7_565 7_565 ?
O1 Ba1 O2 104.53(10) 2_665 1_545 ?
O1 Ba1 O2 104.53(10) 9_655 7 ?
O1 Ba1 O2 129.75(14) 7_565 1_545 ?
O1 Ba1 O2 75.47(10) 3_455 7 ?
O1 Ba1 O2 104.53(10) 8_445 7_665 ?
O1 Ba1 O2 104.53(10) 9_655 7_565 ?
O1 Ba1 O2 104.53(10) 7_565 7_665 ?
O1 Ba1 O2 75.47(10) 3_455 7_565 ?
O1 Ba1 O2 129.75(14) 3_455 7_665 ?
O1 Ba1 O2 75.47(10) 8_445 1_545 ?
O1 Ba1 O2 104.53(10) 8_445 7_565 ?
O1 Ba1 O2 75.47(10) 8_445 1_445 ?
O1 Ba1 O2 50.25(14) 2_665 . ?
O1 Ba1 O2 104.53(10) 2_665 1_445 ?
O1 Ba1 O2 104.53(10) 7_565 7 ?
O1 Ba1 O2 75.47(10) 1_545 7_665 ?
O1 Ba1 O1 61.97(15) 8_445 9_655 ?
O1 Ba1 O1 180.0(3) 9_655 3_455 ?
O1 Ba1 O1 61.97(15) 8_445 7_565 ?
O1 Ba1 O1 118.03(15) 2_665 9_655 ?
O1 Ba1 O1 118.03(15) 8_445 1_545 ?
O1 Ba1 O1 118.03(15) 1_545 9_655 ?
O1 Ba1 O1 118.03(15) 7_565 3_455 ?
O1 Ba1 O1 61.97(15) 7_565 9_655 ?
O1 Ba1 O1 180.00(15) 8_445 2_665 ?
O1 Ba1 O1 118.03(15) 8_445 3_455 ?
O1 Ba1 O1 61.97(15) 2_665 1_545 ?
O1 Ba1 O1 61.97(15) 2_665 3_455 ?
O1 Ba1 O1 180.0 1_545 7_565 ?
O1 Ba1 O1 61.97(15) 1_545 3_455 ?
O1 Ba1 O1 118.03(15) 2_665 7_565 ?
Na1 Co1 Na1 106.53(8) 7_566 7_666 ?
Na1 Co1 Na1 106.53(8) 7_566 7_556 ?
Na1 Co1 Na1 106.53(8) . 1_445 ?
Na1 Co1 Na1 73.47(8) . 7_666 ?
Na1 Co1 Na1 73.47(8) 7_566 1_445 ?
Na1 Co1 Na1 180.00(14) 7_566 1_545 ?
Na1 Co1 Na1 106.53(8) 1_545 . ?
Na1 Co1 Na1 73.47(8) 1_545 7_666 ?
Na1 Co1 Na1 73.47(8) 1_545 7_556 ?
Na1 Co1 Na1 106.53(8) 7_556 7_666 ?
Na1 Co1 Na1 106.53(8) 1_545 1_445 ?
Na1 Co1 Na1 180.0 1_445 7_666 ?
Na1 Co1 Na1 73.47(8) 7_556 1_445 ?
Na1 Co1 Na1 73.47(8) 7_566 . ?
Na1 Co1 Na1 180.0 . 7_556 ?
O1 Co1 Na1 126.71(4) 8_446 7_566 ?
O1 Co1 Na1 126.71(4) 1_545 1_445 ?
O1 Co1 Na1 59.82(13) 9_656 7_666 ?
O1 Co1 Na1 53.29(4) 2_665 7_566 ?
O1 Co1 Na1 120.18(13) 7_566 1_545 ?
O1 Co1 Na1 59.82(13) 7_566 7_566 ?
O1 Co1 Na1 53.29(4) 2_665 7_666 ?
O1 Co1 Na1 53.29(4) 9_656 1_545 ?
O1 Co1 Na1 126.71(4) 2_665 1_445 ?
O1 Co1 Na1 126.71(4) 3_455 1_545 ?
O1 Co1 Na1 53.29(4) 9_656 . ?
O1 Co1 Na1 126.71(4) 9_656 7_556 ?
O1 Co1 Na1 53.29(4) 1_545 7_666 ?
O1 Co1 Na1 53.29(4) 3_455 7_556 ?
O1 Co1 Na1 59.82(13) 3_455 1_445 ?
O1 Co1 Na1 53.29(4) 1_545 7_556 ?
O1 Co1 Na1 53.29(4) 8_446 1_445 ?
O1 Co1 Na1 59.82(13) 8_446 7_556 ?
O1 Co1 Na1 53.29(4) 7_566 1_445 ?
O1 Co1 Na1 120.18(13) 2_665 7_556 ?
O1 Co1 Na1 120.18(13) 1_545 7_566 ?
O1 Co1 Na1 126.71(4) 7_566 7_556 ?
O1 Co1 Na1 126.71(4) 3_455 . ?
O1 Co1 Na1 53.29(4) 8_446 1_545 ?
O1 Co1 Na1 120.18(13) 3_455 7_666 ?
O1 Co1 Na1 126.71(4) 2_665 1_545 ?
O1 Co1 Na1 126.71(4) 8_446 7_666 ?
O1 Co1 Na1 126.71(4) 7_566 7_666 ?
O1 Co1 Na1 126.71(4) 1_545 . ?
O1 Co1 Na1 120.18(13) 9_656 1_445 ?
O1 Co1 Na1 126.71(4) 9_656 7_566 ?
O1 Co1 Na1 120.18(13) 8_446 . ?
O1 Co1 Na1 53.29(4) 3_455 7_566 ?
O1 Co1 Na1 59.82(13) 2_665 . ?
O1 Co1 Na1 53.29(4) 7_566 . ?
O1 Co1 Na1 59.82(13) 1_545 1_545 ?
O1 Co1 O1 93.28(18) 3_455 8_446 ?
O1 Co1 O1 180.00(18) 1_545 7_566 ?
O1 Co1 O1 93.28(18) 9_656 1_545 ?
O1 Co1 O1 93.28(18) 1_545 8_446 ?
O1 Co1 O1 93.28(18) 2_665 7_566 ?
O1 Co1 O1 93.28(18) 9_656 2_665 ?
O1 Co1 O1 93.28(18) 3_455 7_566 ?
O1 Co1 O1 86.72(18) 3_455 2_665 ?
O1 Co1 O1 86.72(18) 8_446 7_566 ?
O1 Co1 O1 86.72(18) 1_545 2_665 ?
O1 Co1 O1 180.0 9_656 3_455 ?
O1 Co1 O1 180.0(2) 8_446 2_665 ?
O1 Co1 O1 86.72(18) 9_656 8_446 ?
O1 Co1 O1 86.72(18) 9_656 7_566 ?
O1 Co1 O1 86.72(18) 3_455 1_545 ?
Ba1 P1 Ba1 98.59(4) 1_565 1_665 ?
Ba1 P1 Ba1 98.59(4) 1_565 . ?
Ba1 P1 Ba1 98.59(4) . 1_665 ?
Na1 P1 Ba1 118.92(3) . 1_665 ?
Na1 P1 Ba1 69.79(5) 7_666 1_665 ?
Na1 P1 Ba1 161.24(10) 7_676 . ?
Na1 P1 Ba1 118.92(3) . . ?
Na1 P1 Ba1 69.79(5) 7_666 . ?
Na1 P1 Ba1 69.79(5) 7_566 . ?
Na1 P1 Ba1 69.79(5) 7_676 1_565 ?
Na1 P1 Ba1 118.92(3) . 1_565 ?
Na1 P1 Ba1 69.79(5) 7_566 1_565 ?
Na1 P1 Ba1 69.79(5) 7_676 1_665 ?
Na1 P1 Ba1 161.24(10) 7_566 1_665 ?
Na1 P1 Ba1 161.24(10) 7_666 1_565 ?
Na1 P1 Na1 79.84(9) . 7_666 ?
Na1 P1 Na1 116.96(5) 7_676 7_566 ?
Na1 P1 Na1 79.84(9) . 7_566 ?
Na1 P1 Na1 116.96(5) 7_676 7_666 ?
Na1 P1 Na1 116.96(5) 7_566 7_666 ?
Na1 P1 Na1 79.84(9) . 7_676 ?
O2 P1 Ba1 61.08(3) . . ?
O2 P1 Ba1 61.08(3) . 1_665 ?
O2 P1 Ba1 61.08(3) . 1_565 ?
O2 P1 Na1 100.16(9) . 7_666 ?
O2 P1 Na1 180.000(1) . . ?
O2 P1 Na1 100.16(9) . 7_566 ?
O2 P1 Na1 100.16(9) . 7_676 ?
O1 P1 Ba1 125.50(6) 3_565 1_565 ?
O1 P1 Ba1 125.50(6) 2_665 1_665 ?
O1 P1 Ba1 49.68(17) . 1_565 ?
O1 P1 Ba1 125.50(6) 2_665 1_565 ?
O1 P1 Ba1 49.68(17) 2_665 . ?
O1 P1 Ba1 125.50(6) . 1_665 ?
O1 P1 Ba1 49.68(17) 3_565 1_665 ?
O1 P1 Ba1 125.50(6) 3_565 . ?
O1 P1 Ba1 125.50(6) . . ?
O1 P1 Na1 149.07(19) . 7_666 ?
O1 P1 Na1 69.23(18) 2_665 . ?
O1 P1 Na1 149.07(19) 3_565 7_566 ?
O1 P1 Na1 58.48(3) . 7_676 ?
O1 P1 Na1 58.48(3) . 7_566 ?
O1 P1 Na1 58.48(3) 3_565 7_676 ?
O1 P1 Na1 58.48(3) 2_665 7_566 ?
O1 P1 Na1 149.07(19) 2_665 7_676 ?
O1 P1 Na1 69.23(18) 3_565 . ?
O1 P1 Na1 58.48(3) 3_565 7_666 ?
O1 P1 Na1 58.48(3) 2_665 7_666 ?
O1 P1 Na1 69.23(18) . . ?
O1 P1 O2 110.77(18) 3_565 . ?
O1 P1 O2 110.77(18) 2_665 . ?
O1 P1 O2 110.77(18) . . ?
O1 P1 O1 108.14(18) . 3_565 ?
O1 P1 O1 108.14(18) 3_565 2_665 ?
O1 P1 O1 108.14(18) . 2_665 ?
P1 Na1 P1 100.16(9) . 7_676 ?
O2 Na1 P1 79.84(9) 1_556 7_676 ?
O2 Na1 P1 180.000(1) 1_556 . ?
O2 Na1 O1 89.74(15) 1_556 7_566 ?
O2 Na1 O1 150.69(10) 1_556 2_665 ?
O2 Na1 O1 150.69(10) 1_556 3_565 ?
O2 Na1 O1 89.74(15) 1_556 9_656 ?
O2 Na1 O1 89.74(15) 1_556 8_456 ?
O2 Na1 O1 89.74(15) 1_556 8_556 ?
O2 Na1 O1 89.74(15) 1_556 9_666 ?
O2 Na1 O1 150.69(9) 1_556 . ?
O2 Na1 O1 89.74(15) 1_556 7_676 ?
O1 Na1 P1 90.26(15) 8_456 . ?
O1 Na1 P1 29.31(9) 3_565 . ?
O1 Na1 P1 29.08(10) 7_676 7_676 ?
O1 Na1 P1 90.26(15) 9_666 . ?
O1 Na1 P1 92.42(11) 8_456 7_676 ?
O1 Na1 P1 90.26(15) 7_676 . ?
O1 Na1 P1 146.02(12) 9_656 7_676 ?
O1 Na1 P1 92.42(11) 8_556 7_676 ?
O1 Na1 P1 129.47(15) 2_665 7_676 ?
O1 Na1 P1 90.26(15) 9_656 . ?
O1 Na1 P1 29.08(10) 9_666 7_676 ?
O1 Na1 P1 90.26(15) 8_556 . ?
O1 Na1 P1 146.02(12) 7_566 7_676 ?
O1 Na1 P1 29.31(9) . . ?
O1 Na1 P1 85.00(8) . 7_676 ?
O1 Na1 P1 29.31(9) 2_665 . ?
O1 Na1 P1 90.26(15) 7_566 . ?
O1 Na1 P1 85.00(8) 3_565 7_676 ?
O1 Na1 O1 115.99(16) 9_666 2_665 ?
O1 Na1 O1 175.0(2) 7_676 7_566 ?
O1 Na1 O1 55.0(2) 8_456 7_566 ?
O1 Na1 O1 115.99(16) 7_676 2_665 ?
O1 Na1 O1 119.998(4) 9_666 8_556 ?
O1 Na1 O1 65.87(17) 7_566 2_665 ?
O1 Na1 O1 89.00(14) 7_566 . ?
O1 Na1 O1 65.87(17) 9_656 2_665 ?
O1 Na1 O1 65.0(2) 8_456 9_666 ?
O1 Na1 O1 89.00(14) 8_556 2_665 ?
O1 Na1 O1 119.998(3) 7_566 8_556 ?
O1 Na1 O1 50.17(16) . 2_665 ?
O1 Na1 O1 65.87(17) 9_666 . ?
O1 Na1 O1 119.998(3) 8_456 7_676 ?
O1 Na1 O1 115.99(16) 8_556 . ?
O1 Na1 O1 115.99(16) 8_456 3_565 ?
O1 Na1 O1 65.0(2) 7_566 9_656 ?
O1 Na1 O1 89.00(14) 9_666 3_565 ?
O1 Na1 O1 175.0(2) 8_456 8_556 ?
O1 Na1 O1 65.87(17) 7_676 3_565 ?
O1 Na1 O1 65.0(2) 7_676 8_556 ?
O1 Na1 O1 115.99(16) 7_566 3_565 ?
O1 Na1 O1 55.0(2) 9_656 8_556 ?
O1 Na1 O1 89.00(14) 9_656 3_565 ?
O1 Na1 O1 65.87(17) 8_456 . ?
O1 Na1 O1 50.17(16) . 3_565 ?
O1 Na1 O1 89.00(14) 7_676 . ?
O1 Na1 O1 50.17(16) 2_665 3_565 ?
O1 Na1 O1 115.99(16) 9_656 . ?
O1 Na1 O1 55.0(2) 9_666 7_676 ?
O1 Na1 O1 119.998(3) 9_666 7_566 ?
O1 Na1 O1 175.0(2) 9_666 9_656 ?
O1 Na1 O1 119.998(3) 7_676 9_656 ?
O1 Na1 O1 119.998(4) 8_456 9_656 ?
O1 Na1 O1 89.00(14) 8_456 2_665 ?
O1 Na1 O1 65.87(17) 8_556 3_565 ?
Ba1 O2 Ba1 119.68(2) . 1_665 ?
Ba1 O2 Ba1 119.68(2) 1_565 1_665 ?
Ba1 O2 Ba1 119.68(2) 1_565 . ?
P1 O2 Ba1 93.27(11) . . ?
P1 O2 Ba1 93.27(11) . 1_565 ?
P1 O2 Ba1 93.27(11) . 1_665 ?
P1 O2 Na1 180.000(1) . 1_554 ?
Na1 O2 Ba1 86.73(11) 1_554 1_565 ?
Na1 O2 Ba1 86.73(11) 1_554 1_665 ?
Na1 O2 Ba1 86.73(11) 1_554 . ?
Ba1 O1 Na1 172.83(18) 1_565 . ?
Co1 O1 Ba1 91.07(17) 1_565 1_565 ?
Co1 O1 Na1 81.76(13) 1_565 . ?
Co1 O1 Na1 87.85(12) 1_565 7_566 ?
Co1 O1 Na1 87.85(12) 1_565 7_676 ?
P1 O1 Ba1 105.7(2) . 1_565 ?
P1 O1 Co1 163.2(3) . 1_565 ?
P1 O1 Na1 81.5(2) . . ?
P1 O1 Na1 92.44(11) . 7_676 ?
P1 O1 Na1 92.44(11) . 7_566 ?
Na1 O1 Ba1 88.72(14) 7_676 1_565 ?
Na1 O1 Ba1 88.72(14) 7_566 1_565 ?
Na1 O1 Na1 91.00(14) 7_676 . ?
Na1 O1 Na1 175.0(2) 7_676 7_566 ?
Na1 O1 Na1 91.00(14) 7_566 . ?

_olex2_submission_special_instructions 'No special instructions were received'
_exptl_crystal_preparation       'Magnetic properties'
